[Molden Format]

[FREQ]
        -650.8509719963
        1157.6543597838
        1476.4120743187
        1613.9262193539
        4153.2840556788
        4191.4963064950

[FR-COORD]
H          0.0000000000        1.8508413575       -1.6067169798
O          0.0000000000        1.3207106918        0.1012377765
O          0.0000000000       -1.3207106918        0.1012377765
H          0.0000000000       -1.8508413575       -1.6067169798

[FR-NORM-COORD]
vibration 1
           0.7043661297        0.0000000000        0.0000000000
          -0.0621961040       -0.0000000000       -0.0000000000
           0.0621961040        0.0000000000        0.0000000000
          -0.7043661297       -0.0000000000       -0.0000000000
vibration 2
           0.0000000000        0.1777101099       -0.1791073114
          -0.0000000000        0.6604637026        0.0112854058
           0.0000000000       -0.6604636792        0.0112853631
          -0.0000000000       -0.1777104814       -0.1791071711
vibration 3
          -0.0000000000        0.6813385822        0.1885990065
           0.0000000000       -0.0081255851       -0.0118833973
          -0.0000000000        0.0081256652       -0.0118835209
           0.0000000000       -0.6813398531        0.1885992337
vibration 4
          -0.0000000000        0.6870153201        0.1462553768
           0.0000000000       -0.0432881566       -0.0688951006
          -0.0000000000       -0.0432881716        0.0688950733
           0.0000000000        0.6870138353       -0.1462549434
vibration 5
          -0.0000000000       -0.2004852138        0.6765821823
           0.0000000000        0.0126323970       -0.0434064390
          -0.0000000000        0.0126323463        0.0434063145
           0.0000000000       -0.2004845952       -0.6765802066
vibration 6
          -0.0000000000       -0.1964632861        0.6777406955
           0.0000000000        0.0156410836       -0.0427038229
          -0.0000000000       -0.0156411189       -0.0427039531
           0.0000000000        0.1964638471        0.6777426882
